ITEM: TIMESTEP
0
ITEM: NUMBER OF ATOMS
10976
ITEM: BOX BOUNDS
0.000000 55.996000
0.000000 56.923000
0.000000 56.369000
ITEM: ATOMS id type x y z aq2 aq4 aq5 aq6
1 1 11.881000 5.721000 51.189000 0.02044063157296112 0.0961128455369558 0.13087694343694853 0.4658974476324727
2 1 13.409000 15.352000 47.299000 0.03255454055386966 0.08605302207382957 0.10541152403397591 0.4068585611296692
3 1 43.836000 2.856000 48.181000 0.020637845703083545 0.18539009258756536 0.015704039345887617 0.5494277887661176
4 1 16.989000 8.678000 0.887000 0.019655193941749815 0.1814681881064205 0.045393997858358466 0.5365383458641823
5 1 14.546000 53.734000 14.430000 0.013047757583825526 0.10695942186323565 0.09491303058703572 0.34091946142973095
6 1 43.150000 50.461000 11.012000 0.0143170190944242 0.10420621461929819 0.13436118677574324 0.4694264771825229
7 1 33.592000 55.524000 16.938000 0.023656028121093006 0.18619541201515816 0.020223279231715397 0.5424223998073734
8 1 20.298000 39.103000 24.735000 0.020246210616309174 0.1886006330673159 0.013425180602477257 0.5502009906327971
9 1 13.735000 42.270000 5.528000 0.026164754333355272 0.16018543828372822 0.0687135232675556 0.505956253003053
10 1 13.552000 4.594000 28.024000 0.023909788185716416 0.12274709292700942 0.1351734274520165 0.4435317383434131
11 1 54.292000 9.398000 19.920000 0.046848148600841355 0.1466635140607708 0.11660249077578219 0.4533562681331476
12 1 41.514000 26.988000 41.035000 0.01180694243305221 0.1861015109561612 0.09175433672246645 0.49352730820205176
13 1 26.204000 16.189000 13.815000 0.024636255312760865 0.11998130850867077 0.1131846656322207 0.3196129145922952
14 1 10.284000 53.921000 27.350000 0.015077170186711298 0.0912111921648266 0.13612905654869817 0.3192560089254375
15 1 25.009000 13.454000 24.108000 0.03470557400584739 0.17250338112595637 0.08240326097484162 0.49777215793381185
16 1 54.635000 38.361000 19.951000 0.022737434540379037 0.1785757935517851 0.025279396198256362 0.5221163529770243
17 1 41.180000 36.159000 24.581000 0.025444957296912346 0.18208805688754023 0.04483246029382736 0.5322675345410565
18 1 14.525000 52.198000 19.233000 0.01550797128624291 0.15421072687916404 0.05114477600177191 0.4441523074472689
19 1 51.909000 12.835000 23.438000 0.04649566971761366 0.14019296870389472 0.10447490876570416 0.4185569495882064
20 1 9.525000 45.084000 12.359000 0.023078150898037785 0.13627768753060115 0.045739103783388683 0.45692652683142543
21 1 52.537000 55.394000 46.665000 0.015537759445495432 0.15678090669177663 0.05490464872633162 0.5156972757565861
22 1 38.013000 25.076000 32.728000 0.023864670254981797 0.1026683379868105 0.07422414825610085 0.37844708173577285
23 1 2.963000 19.687000 30.869000 0.04002693268764329 0.09724988914826306 0.09964553933880639 0.46052422800800163
24 1 6.941000 46.049000 15.453000 0.0445092305746497 0.17111032395605877 0.09446422585833272 0.46549004946766825
25 1 55.410000 44.328000 32.453000 0.015460360814763095 0.13819944929403705 0.06006279854118935 0.4563668836573911
26 1 7.169000 8.300000 34.875000 0.02061020550229668 0.1902904577302728 0.02124908312852883 0.5430370753554199
27 1 52.638000 5.197000 18.066000 0.030677099558389556 0.10411287391848598 0.11628753578223021 0.45636132038761296
28 1 7.901000 11.171000 22.049000 0.014838995026143343 0.1316671232780603 0.05634852881822418 0.41290573301707356
29 1 17.449000 9.785000 42.430000 0.030207732678004372 0.1591822011304276 0.05737892004976693 0.5092271163699426
30 1 47.182000 43.966000 22.033000 0.01906059319871165 0.1790940071002093 0.02792034951370841 0.5249280997577084
31 1 17.207000 8.157000 20.385000 0.020062265978682742 0.07330210855447745 0.14816225166228542 0.3463790415278859
32 1 16.607000 48.033000 33.700000 0.026904996493452737 0.10418987100179017 0.08661710000755984 0.3138613773734198
33 1 53.029000 47.469000 36.632000 0.02602817532305843 0.05620291578383264 0.1108494921207092 0.31065666130503267
34 1 0.223000 12.147000 12.714000 0.016031890629338907 0.07915026933284586 0.11852519520334119 0.35432082471906856
35 1 49.026000 33.515000 56.262000 0.025392810479080336 0.1626594185352265 0.057318927561883046 0.5079322666093693
36 1 30.528000 47.336000 31.696000 0.012311486822107491 0.1579400298494188 0.061972529451478575 0.49244406513891725
37 1 53.827000 16.720000 41.968000 0.01682704865245136 0.15707752090544505 0.07928374367683459 0.46186119319776686
38 1 52.503000 11.179000 39.468000 0.02174114121052226 0.15499984251705837 0.05599418433405127 0.5081709077274136
39 1 12.623000 52.759000 53.454000 0.020666120514483483 0.1589278044391319 0.05541080873336386 0.5222186645710268
40 1 41.316000 9.265000 34.094000 0.013396513376913654 0.09931898604068945 0.13002167549703267 0.46387089215101107
41 1 51.539000 52.658000 39.778000 0.012458730953298023 0.15827810839654988 0.06161145783899044 0.5160475875734363
42 1 49.067000 2.331000 7.965000 0.009004485855406238 0.15780686922485013 0.059044733504811805 0.5151606278685407
43 1 3.211000 10.475000 33.637000 0.010443567841175243 0.18855303817940877 0.06399162033526065 0.44962245873485934
44 1 5.894000 53.438000 3.240000 0.014746733634857047 0.18902309911175688 0.024541516240751 0.5498937476131016
45 1 55.333000 24.558000 41.428000 0.018656718706916608 0.11934061656610284 0.08355966094922386 0.39793889326987925
46 1 25.707000 48.340000 4.764000 0.03149826123410334 0.14913337694691767 0.0738151119815851 0.4691117764351746
47 1 1.136000 0.489000 38.219000 0.012469210459317441 0.15690151530078172 0.062462311261812044 0.5085960182145878
48 1 0.060000 7.045000 48.078000 0.022727280130812218 0.0981388004688612 0.12908870866934438 0.46498368879982493
49 1 46.436000 46.679000 49.507000 0.02529580325206307 0.16211213839133562 0.0503214024069466 0.5058883845669265
50 1 11.939000 5.777000 43.516000 0.015315108013157521 0.14510580157942166 0.08022070915276326 0.4822355797779554
51 1 24.616000 10.635000 48.977000 0.03200355503482967 0.1446450727946206 0.11877243254974557 0.4843260575569727
52 1 11.231000 1.066000 0.237000 0.01546271935530046 0.09722388697790692 0.1270734298089172 0.4652445978904069
53 1 35.737000 53.433000 22.979000 0.020872116109642357 0.14410137917398486 0.08841181687863754 0.41983240683000833
54 1 17.705000 1.760000 34.395000 0.014909697245608793 0.1860788384102258 0.05711638672548051 0.5154087224492325
55 1 50.318000 17.939000 41.391000 0.02112521672560824 0.07927432869767527 0.13302070517103498 0.4256953379990356
56 1 13.040000 12.028000 39.907000 0.016631012337632253 0.15629126552019512 0.06367797439029045 0.516640771305355
57 1 55.285000 15.713000 47.997000 0.021385320547127773 0.08811884082618181 0.12163780024890948 0.3703451249297991
58 1 9.402000 46.195000 53.753000 0.03143116579313055 0.10424835724768848 0.11588507407425319 0.36876479795819234
59 1 11.907000 46.875000 13.202000 0.02717136740635114 0.146130395323826 0.06402430537423093 0.45071763567130835
60 1 16.168000 3.194000 1.920000 0.031823984872630814 0.17920493108677354 0.03195181672317952 0.5421383595675191
61 1 6.611000 20.982000 51.521000 0.016786140457097604 0.16530719918955916 0.041149167237974495 0.4981132778125903
62 1 52.696000 43.994000 32.197000 0.03804438425567856 0.15457874486651466 0.06524476893173163 0.4817135848870989
63 1 26.794000 10.447000 50.616000 0.0265393027183013 0.15967452408373256 0.04161826034710796 0.5065615236517431
64 1 4.319000 5.151000 41.372000 0.012004790716538727 0.18949794178840115 0.015184760326798802 0.5525882787868409
65 1 2.204000 0.355000 11.916000 0.019459300702063413 0.08353345496646614 0.1130595156823231 0.41007331674783754
66 1 49.302000 6.883000 2.198000 0.013401804686773733 0.18571746004409714 0.0098519278805358 0.5464647915276796
67 1 0.709000 6.830000 24.246000 0.03572989430516083 0.08522052829125248 0.0611903235572904 0.20776268335952078
68 1 16.470000 6.155000 33.139000 0.027569009673750842 0.15850733591925636 0.054437262977083505 0.5139118465993873
69 1 2.051000 14.355000 14.086000 0.02500951831741601 0.0953616975708129 0.08170708628407544 0.3223146641434084
70 1 45.824000 13.650000 53.529000 0.022612272626528783 0.15761281170887156 0.061248704066452685 0.5119552610525343
71 1 12.337000 55.815000 22.823000 0.026425858168879223 0.18534332386900643 0.03796418691576499 0.5333458740391861
72 1 4.397000 7.122000 12.494000 0.022080216543479275 0.10507148693466396 0.08656896844828695 0.4261231806857594
73 1 11.868000 5.603000 2.386000 0.028373388951840835 0.09408785895600912 0.13190441893446697 0.45480786098196374
74 1 51.868000 38.603000 34.224000 0.0185680966753572 0.09410560983106434 0.05746349774356153 0.4176405245615867
75 1 15.227000 2.791000 28.638000 0.020116601658772455 0.12230806196182704 0.09604059160965744 0.4511053637624845
76 1 0.711000 49.103000 26.470000 0.017186502523476452 0.1442735596035224 0.08839436033845635 0.3884980564385602
77 1 8.304000 20.055000 19.336000 0.027314541342544667 0.18680137009278636 0.02515330986165124 0.5455489375506251
78 1 6.815000 2.134000 2.320000 0.010554588944022938 0.18786311787857612 0.018033197848002724 0.5499319326221251
79 1 50.846000 12.340000 16.131000 0.011329402565277284 0.18503707142436754 0.03323382684368749 0.529717904601263
80 1 52.183000 49.687000 6.131000 0.02142499826048765 0.15799028846515398 0.060784569579830576 0.5117200506317888
81 1 29.141000 55.596000 29.367000 0.023758521621210105 0.08472513373340396 0.12451960158141889 0.43048418111024594
82 1 3.589000 51.482000 7.021000 0.011013168499340321 0.18857552334617966 0.026465528404115115 0.5474508581927853
83 1 1.190000 51.580000 5.654000 0.005931882259282757 0.15654728249286895 0.06166465414645721 0.5197367646211531
84 1 46.068000 9.592000 32.671000 0.00967271034138802 0.09850136476824427 0.1337864162165118 0.462394837660847
85 1 4.848000 8.421000 23.053000 0.03746785715267329 0.08766786427815869 0.09728455288265928 0.27363514771990144
86 1 12.000000 3.926000 7.897000 0.027059837657709373 0.08032766263564813 0.08737174425523032 0.3268431959758937
87 1 44.158000 52.604000 22.973000 0.03461918156366959 0.12540655206588108 0.08611229358178778 0.40847454224200525
88 1 3.252000 49.337000 26.135000 0.015239276073718817 0.10580779398950291 0.0963578842277617 0.34594712943481
89 1 49.536000 0.225000 30.881000 0.015471183740250187 0.09238687428431978 0.12363495358029213 0.4254685758418925
90 1 8.710000 12.938000 36.784000 0.023220902960924786 0.18582191198836948 0.02311368535330719 0.5464700762116496
91 1 27.676000 2.903000 51.279000 0.012042306939320357 0.09784597461133822 0.1302752573270552 0.46104684640040744
92 1 5.544000 4.097000 25.631000 0.028296153844339512 0.08579075785667961 0.07792264885408776 0.2345349513888501
93 1 19.852000 13.614000 54.938000 0.02437622178765886 0.14352380684823748 0.05666505046339829 0.4722113628784688
94 1 0.122000 48.260000 50.336000 0.022637208820635742 0.1598438607842999 0.057992191016196695 0.5094144721712437
95 1 4.129000 28.577000 14.669000 0.023289606198688684 0.18447314442259088 0.03727785842913505 0.531682947315722
96 1 19.670000 9.842000 45.653000 0.031091310227367105 0.18783724664783613 0.032757844101189204 0.544801845521511
97 1 35.181000 9.334000 22.559000 0.01396617664885181 0.15841899248044586 0.06113507983251787 0.5183414113910312
98 1 33.720000 16.321000 42.626000 0.016845419964641995 0.07969433502358032 0.09951941159519101 0.423048960787385
99 1 51.509000 9.410000 41.294000 0.018843025303588994 0.09508825127053377 0.12411581436241025 0.4613269886832037
100 1 14.032000 4.144000 52.363000 0.016839363341045258 0.1573174090936086 0.0622167154619386 0.5157362061979365
101 1 3.695000 12.027000 36.291000 0.014799693467476727 0.16740053750270206 0.05952107348144928 0.4673118715568705
102 1 11.126000 13.246000 43.254000 0.02967892960721302 0.1766734506417403 0.043150517531322916 0.5052549205128012
103 1 3.289000 42.321000 46.797000 0.02199204490322971 0.16008117376684936 0.06817256306617413 0.4478381653116668
104 1 8.241000 11.194000 5.322000 0.027046085731983048 0.16679174414504966 0.0485154639208868 0.5103575931072069
105 1 19.440000 10.189000 50.582000 0.007878452758177366 0.1755927295569114 0.03247109203540453 0.5314630363710312
106 1 13.074000 54.141000 6.664000 0.02126486698152654 0.14263535001794636 0.08958041094749557 0.4667906905385515
107 1 52.322000 53.628000 51.989000 0.014993885137986319 0.15484922757395317 0.05998620264015491 0.5183622286089883
108 1 55.437000 53.108000 29.323000 0.03306791382268159 0.12066963572947206 0.07737052485919307 0.4367845421470861
109 1 1.018000 11.381000 0.780000 0.014205865957791735 0.0953137464293292 0.13420062937427518 0.463961574821958
110 1 48.792000 13.921000 15.146000 0.011878050787300226 0.18448152735075327 0.01667704028708516 0.5400022592890512
111 1 4.061000 15.854000 52.687000 0.029362112242936503 0.14128845860260833 0.09521111215869528 0.43692803032953176
112 1 12.875000 13.247000 52.404000 0.0232069926994204 0.11242066746089846 0.1321271989908915 0.4388819544271742
113 1 52.854000 10.821000 9.626000 0.011347221412105219 0.0881503436333392 0.13234245616077223 0.45069544001152023
114 1 1.756000 15.091000 54.058000 0.017050937165528808 0.060904832332974466 0.12525858804432 0.4028354407708892
115 1 50.906000 4.510000 20.161000 0.03179417510040508 0.11036364508317736 0.11203454214159665 0.4407171174089742
116 1 54.455000 32.539000 53.078000 0.03176838542359993 0.1898839291371128 0.01807334512664176 0.5526844361454544
117 1 12.755000 15.060000 13.252000 0.028169046884154808 0.1390312792959517 0.07961996135160399 0.43490627447539465
118 1 4.460000 24.998000 25.000000 0.025489702162997747 0.18238151627948093 0.028143143624233005 0.542955560855565
119 1 0.397000 3.025000 20.604000 0.013075217661872423 0.09125485641617541 0.05644980334994944 0.4036574688734682
120 1 54.593000 42.402000 15.440000 0.025490349082194712 0.11732570683084681 0.13037167521197093 0.42002179097911896
121 1 6.381000 2.640000 12.678000 0.01989027274115424 0.10470351378889947 0.06229147072622596 0.4173894138936954
122 1 11.625000 54.822000 18.828000 0.031868834278661204 0.16814629837145126 0.059840646026264904 0.47368035504581857
123 1 44.742000 5.343000 6.384000 0.017258603880283163 0.1536369353952769 0.05967741289503925 0.5123273745631376
124 1 53.637000 3.113000 16.650000 0.019875259326323464 0.1057690645706111 0.12250988587123843 0.4547640770818101
125 1 33.914000 14.961000 4.068000 0.023338645745526642 0.10990323368710275 0.10975664194680343 0.45920094330017486
126 1 0.011000 56.736000 16.974000 0.02449405893523364 0.11400070921020777 0.07195582338724801 0.4509279969166881
127 1 24.904000 46.436000 32.672000 0.023190307895887517 0.1406908828360705 0.07331782024302953 0.4774977598262126
128 1 35.263000 1.482000 26.836000 0.03439518115599417 0.08716250153367346 0.11089872880656843 0.37211901173643896
129 1 2.133000 52.136000 33.285000 0.016148478662818967 0.17426703659581505 0.04467227422985992 0.5261805675939076
130 1 42.395000 4.994000 32.055000 0.016569704218761774 0.15165708868662062 0.0680585278754253 0.4989179769130942
131 1 52.999000 9.991000 29.189000 0.022555537245441425 0.09792552654464344 0.1350540451786314 0.4438761857764283
132 1 43.007000 52.800000 15.513000 0.029757644597419475 0.18620778789418965 0.020542850087329808 0.5438884776041565
133 1 9.596000 29.593000 13.550000 0.029771258470643776 0.1881324875446069 0.021898788477527055 0.5506630411018357
134 1 10.118000 10.941000 23.946000 0.021822512180438677 0.17374349685935034 0.05576111605133097 0.4952751477145454
135 1 12.400000 10.506000 52.867000 0.013855983943046537 0.09438319148310982 0.12847524870158328 0.4554457773665183
136 1 3.343000 20.627000 23.176000 0.028684921950141894 0.17648986483430898 0.025456586574292377 0.5306759475946182
137 1 2.765000 4.530000 25.081000 0.025309974274642204 0.05480362176823199 0.08696391136198137 0.17519465051206018
138 1 50.685000 54.814000 9.405000 0.00618653593698629 0.15982786545075425 0.06350843508256514 0.5219160240357993
139 1 55.392000 4.952000 33.206000 0.01914482016666648 0.10008925347942177 0.10383006751164339 0.3801548221311856
140 1 3.881000 12.538000 18.623000 0.02944850951815224 0.15958218677690508 0.12075077167785739 0.39454100304368567
141 1 52.154000 20.906000 51.756000 0.03302307434613266 0.09313342241033953 0.07331977611917434 0.4286327189945934
142 1 12.420000 19.300000 35.028000 0.018554401326692168 0.18715952496170457 0.02533766923575748 0.5473433675713417
143 1 19.685000 9.717000 33.198000 0.022426764449802312 0.18823800006331548 0.01614557077576689 0.5428580285972087
144 1 17.824000 55.883000 3.385000 0.011301764095303882 0.17710382141734177 0.03106277002937371 0.5377812260395445
145 1 50.538000 19.618000 43.556000 0.024050809116171263 0.07707514065906275 0.14166235471038954 0.3960214982231984
146 1 7.523000 48.408000 23.696000 0.026533976815237906 0.1280265175474227 0.10112667517902534 0.402844149761461
147 1 51.587000 51.771000 42.413000 0.013506038768128953 0.16005357840905476 0.05428742951747842 0.5165205423106761
148 1 4.727000 7.509000 36.170000 0.017497957507153567 0.19152725224969352 0.021011244768984274 0.5226762048061314
149 1 49.232000 37.254000 46.958000 0.014278403760573776 0.15106626599576317 0.0621701292238138 0.4715529577679212
150 1 12.242000 8.767000 35.630000 0.013905694425728057 0.16140571848272506 0.05570635218473636 0.5236287771028206
151 1 11.085000 24.184000 35.298000 0.03298899473230298 0.1276615200604957 0.0797815450373691 0.4347728821753258
152 1 28.316000 11.006000 20.233000 0.01996314963119843 0.15885556967528075 0.06877155407279213 0.505669077309362
153 1 15.989000 27.037000 35.778000 0.015121972474868592 0.15506332026743486 0.05361537901837342 0.4472205240529426
154 1 2.951000 17.581000 36.383000 0.02426414054674984 0.06153284382250799 0.1598268472957134 0.39642854379117815
155 1 18.571000 13.895000 39.358000 0.014636709699041118 0.16018362562402744 0.06074726752674302 0.5151081967883013
156 1 17.775000 11.610000 32.408000 0.0305166126152328 0.16385187179938815 0.05484289020206322 0.5192387330492105
157 1 14.063000 15.966000 44.497000 0.038757498326531255 0.08497208071188762 0.101308994149534 0.4072978297360116
158 1 40.511000 54.182000 46.234000 0.004986478045560154 0.18911671165110763 0.013487632420795547 0.5543503460946297
159 1 23.689000 7.334000 44.846000 0.028563518966328666 0.09769109727348249 0.12548055175437492 0.4672686530996926
160 1 9.780000 8.390000 29.077000 0.025517030584168817 0.18407626403640517 0.028406618651072576 0.5408133530729358
161 1 43.846000 12.416000 28.993000 0.014956327133210264 0.1661709599455804 0.06096350358907122 0.5259581496194674
162 1 46.832000 25.903000 49.736000 0.03040968377930535 0.08353555168123539 0.11697019649135318 0.39016619945620307
163 1 8.644000 13.304000 7.088000 0.014040074914744875 0.09802943330183402 0.10997823432290921 0.3969802806149052
164 1 36.974000 2.041000 53.755000 0.009154319033275791 0.18914713768293617 0.020653357023445014 0.5561945980734162
165 1 39.018000 31.587000 39.246000 0.016448725488477308 0.18449118684854326 0.026270714689471224 0.5425561419410838
166 1 2.323000 48.151000 44.164000 0.03237061211403509 0.18288068576918282 0.034020471723690104 0.5334905877287478
167 1 13.171000 56.261000 1.542000 0.017959967337544493 0.15427736166169434 0.05772621023818539 0.5135907049057729
168 1 37.588000 17.198000 26.261000 0.01862748763926684 0.1454342855744504 0.06955326583550546 0.4824568871788391
169 1 5.452000 19.980000 25.219000 0.03319936566860964 0.17928995824768365 0.03235842063896278 0.5338510031880208
170 1 15.631000 4.646000 14.782000 0.028133550661810554 0.1689036831424811 0.06848786664817617 0.4791982606109522
171 1 14.987000 52.395000 7.915000 0.008675208720616874 0.08170275159877723 0.0948910043941243 0.3612980174330047
172 1 45.381000 48.061000 17.148000 0.029060508012190775 0.12435605287856633 0.08084915388225469 0.3640798933902434
173 1 39.295000 15.500000 2.476000 0.015160596043520557 0.14608790193148963 0.0661275830796411 0.46223656965106
174 1 2.080000 39.673000 47.155000 0.03297140645512775 0.1851488536243954 0.05088382083785937 0.5283039885028247
175 1 4.347000 0.228000 23.070000 0.029826285883202873 0.07092012396713786 0.10337673387467375 0.3506555707614902
176 1 48.890000 18.638000 1.843000 0.031065164245703342 0.14848060352851103 0.07057040105096989 0.47495316065783916
177 1 51.452000 35.613000 6.687000 0.01661400363747482 0.1571733436716655 0.02985297290161798 0.4535176095127965
178 1 0.380000 19.405000 27.178000 0.034406560620635684 0.11772676291602426 0.0733666334414917 0.4395007853706547
179 1 21.211000 6.432000 44.329000 0.02457323687194061 0.15241309238443154 0.0709570693610822 0.5109658390245725
180 1 31.217000 27.906000 36.511000 0.030083973136420424 0.1793504995972337 0.045966696804127495 0.5012581685563849
181 1 38.439000 37.845000 9.627000 0.026251710686511744 0.12251138798091958 0.10254224719278768 0.41545947614175416
182 1 12.390000 18.123000 3.635000 0.0390330247716016 0.16118426719769866 0.04391876207606487 0.49145830162501153
183 1 44.198000 21.848000 17.225000 0.015762975381959834 0.17056530762214211 0.08360854285279638 0.4853689063074752
184 1 50.304000 10.362000 35.075000 0.009290475612900369 0.15640634136807452 0.06501669092769277 0.5137668742226174
185 1 12.634000 31.236000 38.476000 0.017403756226388744 0.1647566425814569 0.05681465250989042 0.5018636869788557
186 1 43.730000 26.587000 28.365000 0.026735873431166984 0.11745098421312128 0.1296755391443939 0.34181272342956903
187 1 5.579000 8.994000 14.329000 0.024463667647499156 0.09086321199693667 0.091855090021966 0.42110727146381566
188 1 50.740000 21.849000 16.444000 0.018443546079330658 0.10651185711038255 0.07830121329748575 0.2958047814442022
189 1 9.985000 20.129000 43.569000 0.035569608417132484 0.14352946390536797 0.08739364760648265 0.4575004191152888
190 1 49.866000 9.471000 1.696000 0.022617635594778914 0.18337231443231056 0.027035436775534077 0.5384892477457118
191 1 45.154000 56.345000 12.513000 0.010853104782262967 0.15774786408681182 0.061580283770295945 0.5156351054816204
192 1 5.200000 7.782000 48.390000 0.013251388423594997 0.18779979223669072 0.023904330423937806 0.5483207455594687
193 1 7.127000 16.289000 22.135000 0.02682429278280601 0.18246094479927083 0.029537595291725633 0.5406880004096757
194 1 9.895000 6.493000 5.556000 0.018898663935632137 0.14603446831476624 0.06828901125663545 0.4809685586468289
195 1 1.561000 4.530000 22.657000 0.02148666531356653 0.07265659717363633 0.08619026963447615 0.30231732216108637
196 1 16.539000 18.930000 47.626000 0.03191409665447297 0.11743982113647963 0.10031718918831173 0.3835260356617432
197 1 6.494000 52.959000 11.059000 0.030161525142483263 0.13670708064670856 0.0610714027803154 0.43928129261826954
198 1 48.037000 29.958000 19.238000 0.026610185560930574 0.1655104432246379 0.05902849795358129 0.5117677002307129
199 1 34.590000 37.949000 23.769000 0.020499871254367148 0.11489106292970935 0.0713360470018584 0.43698178283044403
200 1 13.683000 13.876000 42.230000 0.031639069661997504 0.1323822234201632 0.09425859020714702 0.46941705608391143
201 1 1.558000 51.136000 28.588000 0.027376200114837757 0.1247635982184147 0.11549381624441403 0.36750380442153957
202 1 1.020000 19.475000 19.009000 0.014927436939529661 0.18341500274712735 0.04866017503855753 0.4890331508771899
203 1 3.311000 23.455000 45.272000 0.010450222440883472 0.16866345730185928 0.05755888878916367 0.4713168669022048
204 1 25.499000 3.240000 49.417000 0.02547264215813271 0.13086777510983105 0.022292342058996106 0.49184659014551957
205 1 54.662000 13.931000 46.072000 0.02107506705008944 0.07395524904125521 0.09845986015186173 0.42013932559606837
206 1 10.309000 19.901000 38.226000 0.006949548362366078 0.17890009182629682 0.04424247944259729 0.5115032353641712
207 1 47.653000 1.734000 37.324000 0.014559921348073955 0.15533308735254717 0.05177011255547078 0.5106793370561469
208 1 21.400000 49.836000 5.885000 0.026475645954086198 0.1436686939096756 0.09868804473629975 0.4458527245730751
209 1 11.683000 28.359000 52.668000 0.01858688169583648 0.18775865357869195 0.019090475685167904 0.5517853711726141
210 1 25.625000 23.580000 47.159000 0.01949433879517316 0.18860098155568075 0.022538196726078128 0.5491302407220487
211 1 30.076000 4.253000 51.709000 0.01832114840909713 0.1529961137543604 0.06387216063628658 0.5114463345348312
212 1 17.293000 10.930000 52.040000 0.004804430997702888 0.18445014443018962 0.025477722860808346 0.5386758844200592
213 1 9.457000 31.598000 43.589000 0.01621923145384853 0.18574579129645602 0.0332127667095515 0.5349148566002203
214 1 51.975000 16.535000 34.510000 0.02724069300908926 0.16149172898878283 0.052316201278007714 0.5038441247103087
215 1 3.561000 12.155000 56.073000 0.00584848484954807 0.15496808305764168 0.05938768910675929 0.5152848315459331
216 1 7.769000 11.074000 47.045000 0.02610973618519001 0.18226495123334563 0.061488730477049655 0.5165695639868507
217 1 0.325000 2.778000 9.998000 0.01664775249800386 0.07234147336658843 0.12151569573865555 0.41546562595174513
218 1 5.989000 32.069000 49.119000 0.019192064696321617 0.18702344332809276 0.00915059224691976 0.5525786509075807
219 1 50.047000 2.359000 32.907000 0.02331166204651874 0.10212520099344331 0.12842266090090734 0.44709096928131636
220 1 22.516000 25.540000 15.187000 0.019385080980917443 0.18656052976496776 0.021828231448889884 0.5506597264438362
221 1 54.814000 40.115000 52.561000 0.033381403500038744 0.1509311960956597 0.07718040651693242 0.4206207720348441
222 1 5.685000 12.466000 42.613000 0.01557172112597039 0.18636438988464005 0.03872206155523699 0.5402382800874
223 1 52.048000 3.122000 22.718000 0.026152880174445635 0.1201624605528728 0.07753362407095206 0.38774509690141484
224 1 15.142000 12.987000 55.881000 0.03178860907890395 0.15143248600101317 0.11205069319094273 0.45776220142902835
225 1 25.903000 7.614000 51.173000 0.01840891268409592 0.1320213838746355 0.022727114459278195 0.4879195904465038
226 1 12.253000 46.105000 8.335000 0.0188326385655623 0.1289116044513039 0.08905870353106701 0.44889027324976044
227 1 23.804000 22.661000 0.564000 0.02323401479762982 0.18057548681675248 0.04436524162531463 0.5341852800700347
228 1 24.014000 9.349000 9.675000 0.01871572858086091 0.1228953228240281 0.09072475328527572 0.464448369051185
229 1 8.216000 13.186000 0.484000 0.017799928552561798 0.1476013561153253 0.06032548352794135 0.47750646773358235
230 1 48.691000 17.747000 4.615000 0.036326259631430775 0.15474007701536893 0.07471859596954927 0.48944850393916206
231 1 55.413000 22.664000 53.741000 0.032876165627242784 0.14461197242139706 0.07723520089426363 0.47269796554657895
232 1 1.214000 28.954000 20.976000 0.022500993505580213 0.12664411612879828 0.06796240906464479 0.46393453599175705
233 1 8.529000 22.267000 26.191000 0.023334516239868357 0.18415806196649148 0.013561400295453772 0.541712725313551
234 1 12.586000 19.966000 5.763000 0.02346504316144439 0.1731314529332025 0.03243655042518383 0.5084687662420091
235 1 51.006000 28.310000 11.426000 0.024139881263002545 0.1540497473725563 0.08257189571129625 0.4859518704750541
236 1 14.712000 28.540000 31.436000 0.016036150713710236 0.12822376932711557 0.07466454496441544 0.4596670580625424
237 1 2.570000 19.419000 6.334000 0.02744222445502449 0.17149503743415095 0.05785656095939153 0.5057067815435298
238 1 9.447000 4.735000 3.309000 0.022947139191574463 0.15644471427318535 0.05454360333362064 0.5081165349755498
239 1 30.492000 2.409000 12.980000 0.009235085550113984 0.18747688453060832 0.015331089224067142 0.5488098818845263
240 1 5.316000 17.920000 17.771000 0.02828696651087217 0.1857036342699712 0.014894993174397766 0.542299630406467
241 1 50.367000 4.354000 13.006000 0.010791016316162161 0.15901327418787975 0.055401597859513034 0.516961071627759
242 1 31.145000 23.190000 22.185000 0.03919504441817653 0.18361499120186542 0.030684425006365076 0.5013557881242531
243 1 36.229000 19.534000 37.893000 0.022317107226627407 0.14078031272459487 0.07373546802646545 0.4418672377717096
244 1 12.485000 17.610000 54.735000 0.034258782603736035 0.14180416129029305 0.09308347808525069 0.41448151464273997
245 1 11.332000 10.021000 11.526000 0.0334806110465075 0.03940511946881819 0.0993840743021664 0.255354284132144
246 1 11.938000 6.671000 12.508000 0.03474641254850025 0.10692427769092738 0.07834530612927651 0.3828127888080092
247 1 47.253000 29.547000 7.478000 0.024912681689828343 0.14174109606867535 0.09742828507176506 0.4423012242589063
248 1 18.929000 7.183000 46.030000 0.028577427510627754 0.18754608171819673 0.028242730646953616 0.5487729401076448
249 1 13.003000 4.322000 15.299000 0.024135742645426866 0.1410990664475509 0.10321018320858101 0.4470733206755
250 1 49.770000 16.725000 22.002000 0.018177668404486685 0.15930653556495267 0.07221538569273575 0.46237333473842285
251 1 45.973000 23.219000 34.528000 0.03305401864283182 0.17771443890224162 0.063478998552818 0.4745574778020344
252 1 49.832000 33.048000 34.083000 0.016835893436263346 0.0995968675034412 0.07337657278847139 0.4127075993056211
253 1 3.865000 55.277000 4.027000 0.014090323592306012 0.1891818430186508 0.018525368461741274 0.5570639871428819
254 1 50.061000 22.196000 30.746000 0.020006597676897744 0.17806785419636903 0.04182392080201518 0.5185753551626484
255 1 46.196000 28.241000 29.013000 0.021219937960781306 0.0857358393128814 0.11762844540649528 0.2865603240726995
256 1 46.818000 15.302000 31.449000 0.012267892007048916 0.18686785788601779 0.02214857096894646 0.549046369193025
257 1 6.917000 24.953000 41.809000 0.021580181201357213 0.17169415817936462 0.085157297336176 0.481290899759271
258 1 42.927000 22.237000 26.504000 0.024339090130840468 0.14934011764472613 0.073485827120942 0.49329858841849383
259 1 39.164000 20.746000 50.091000 0.012094363348504736 0.14424868165855528 0.11319835066040015 0.3427431548226026
260 1 46.973000 24.386000 46.700000 0.020742145719510423 0.08842745525516736 0.08965821493405078 0.3958853218565168